 Gaussian 16, Revision A.03,
 Gaussian 16:  EM64M-G16RevA.03 25-Dec-2016

 -----------------------
 #p freq rpbepbe/cc-pvdz
 -----------------------

 --------------------------
 i = 12, E = -24.0810440354
 --------------------------
 Symbolic Z-matrix:
 Charge =  0 Multiplicity = 1

                         Standard orientation:
 ---------------------------------------------------------------------
 Center     Atomic      Atomic             Coordinates (Angstroms)
 Number     Number       Type             X           Y           Z
 ---------------------------------------------------------------------
      1          8           0        0.756975    0.122754    0.000009
      2          1           0        1.148102   -0.764883   -0.000028
      3          6           0       -0.672377   -0.020765    0.000016
      4          1           0       -1.041450   -0.542711    0.896598
      5          1           0       -1.086933    0.995364   -0.001522
      6          1           0       -1.041262   -0.545210   -0.895214
 ---------------------------------------------------------------------

 SCF Done:  E(RPBE-PBE) =  -115.577822280     A.U. after   12 cycles

 The electronic state is 1-A.
 Alpha  occ. eigenvalues --  -18.74925  -9.93030  -0.91324  -0.60830  -0.44193
 Alpha  occ. eigenvalues --   -0.37713  -0.36440  -0.27525  -0.20735
 Alpha virt. eigenvalues --    0.03495   0.07239   0.11309   0.11672   0.15622
 Alpha virt. eigenvalues --    0.41168   0.42867   0.44305   0.53188   0.59158
 Alpha virt. eigenvalues --    0.60434   0.60941   0.81360   0.84206   0.91966

 Mulliken charges:
               1
     1  O   -0.266437
     2  H    0.135455
     3  C    0.049025
     4  H    0.019163
     5  H    0.043639
     6  H    0.019154
 Sum of Mulliken charges =  -0.00000

 Dipole moment (field-independent basis, Debye):
    X=             -0.6194    Y=             -1.3701    Z=             -0.0003  Tot=              1.5036
 Quadrupole moment (field-independent basis, Debye-Ang):
   XX=            -12.5185   YY=            -12.0443   ZZ=            -13.5228
   XY=             -2.0723   XZ=              0.0003   YZ=             -0.0002

  Exact polarizability:  18.699  -0.928  16.693  -0.001   0.000  14.867
 Approx polarizability:  27.295  -0.695  24.823  -0.001   0.000  20.608

                      1                      2                      3
                      A                      A                      A
 Frequencies --     41.0854               976.1819              1024.3807
 Red. masses --      1.0710                 1.5842                 2.4731
 Frc consts  --      0.0011                 0.8895                 1.5290
 IR Inten    --    106.1878                93.4612                14.3897

                      4                      5                      6
                      A                      A                      A
 Frequencies --   1074.8215              1301.2046              1379.9991
 Red. masses --      1.2693                 1.2819                 1.1276
 Frc consts  --      0.8639                 1.2788                 1.2652
 IR Inten    --      0.0418                20.3428                 6.8099

                      7                      8                      9
                      A                      A                      A
 Frequencies --   1397.8496              1414.7428              3026.9265
 Red. masses --      1.0446                 1.0340                 1.0328
 Frc consts  --      1.2025                 1.2194                 5.5753
 IR Inten    --      2.4116                 3.1349                60.2470

                     10                     11                     12
                      A                      A                      A
 Frequencies --   3094.5931              3151.9696              3752.6818
 Red. masses --      1.1059                 1.1012                 1.0668
 Frc consts  --      6.2397                 6.4458                 8.8515
 IR Inten    --     69.9504                26.5283                14.8595

 - Thermochemistry -
 -------------------
 Temperature   298.150 Kelvin.  Pressure   1.00000 Atm.
 Atom     1 has atomic number  8 and mass  15.99491

 Molecular mass:    32.02621 amu.
 Principal axes and moments of inertia in atomic units:
                           1         2         3
     Eigenvalues --    14.25214  74.36048  77.05765
           X            0.99896  -0.04562   0.00000
           Y            0.04562   0.99896  -0.00000
           Z           -0.00000   0.00000   1.00000
 This molecule is an asymmetric top.
 Rotational symmetry number  1.
 Rotational temperatures (Kelvin)      6.07726     1.16478     1.12401
 Rotational constants (GHZ):         126.62952    24.27017    23.42066
 Zero-point vibrational energy     129414.6 (Joules/Mol)
                                   30.93084 (Kcal/Mol)
 Warning -- explicit consideration of   1 degrees of freedom as
           vibrations may cause significant error
 Vibrational temperatures:     59.11  1404.51  1473.86  1546.43  1872.14
          (Kelvin)           1985.51  2011.19  2035.50  4355.07  4452.43
                             4534.98  5399.27

 Zero-point correction=                           0.049291 (Hartree/Particle)
 Thermal correction to Energy=                    0.053113
 Thermal correction to Enthalpy=                  0.054057
 Thermal correction to Gibbs Free Energy=         0.025117
 Sum of electronic and zero-point Energies=           -115.528531
 Sum of electronic and thermal Energies=              -115.524709
 Sum of electronic and thermal Enthalpies=            -115.523765
 Sum of electronic and thermal Free Energies=         -115.552705

                     E (Thermal)             CV                S
                      KCal/Mol        Cal/Mol-Kelvin    Cal/Mol-Kelvin
 Total                   33.329              9.468             60.910
 Electronic               0.000              0.000              0.000
 Translational            0.889              2.981             36.324
 Rotational               0.889              2.981             19.041
 Vibrational             31.551              3.507              5.545
 Vibration     1          0.594              1.981              5.206

 Normal termination of Gaussian 16 at Mon Jul 22 11:09:13 2019.
