 Gaussian 16, Revision A.03,
 Gaussian 16:  EM64M-G16RevA.03 25-Dec-2016

 ----------------------
 #p freq pbepbe/cc-pvdz
 ----------------------

 -------------------------
 i = 4, E = -17.2195219556
 -------------------------
 Symbolic Z-matrix:
 Charge =  0 Multiplicity = 1

                         Standard orientation:
 ---------------------------------------------------------------------
 Center     Atomic      Atomic             Coordinates (Angstroms)
 Number     Number       Type             X           Y           Z
 ---------------------------------------------------------------------
      1          8           0        0.000000    0.000000    0.119171
      2          1           0       -0.000000    0.765505   -0.476684
      3          1           0       -0.000000   -0.765505   -0.476684
 ---------------------------------------------------------------------

 SCF Done:  E(RPBE-PBE) =  -76.3339630241     A.U. after   10 cycles

 The electronic state is 1-A1.
 Alpha  occ. eigenvalues --  -18.74090  -0.89811  -0.45285  -0.30396  -0.22402
 Alpha virt. eigenvalues --    0.03086   0.10587   0.51150   0.56048   0.85391
 Alpha virt. eigenvalues --    0.86951   0.94932   1.15331   1.17721   1.37011
 Alpha virt. eigenvalues --    1.53865   1.60364   2.02000   2.05650   2.82474

 Mulliken charges:
               1
     1  O   -0.254981
     2  H    0.127491
     3  H    0.127491
 Sum of Mulliken charges =  -0.00000

 Dipole moment (field-independent basis, Debye):
    X=             -0.0000    Y=              0.0000    Z=             -1.8711  Tot=              1.8711
 Quadrupole moment (field-independent basis, Debye-Ang):
   XX=             -7.0149   YY=             -4.3111   ZZ=             -5.9345
   XY=              0.0000   XZ=              0.0000   YZ=              0.0000

  Exact polarizability:   3.292   0.000   7.532  -0.000   0.000   5.657
 Approx polarizability:   3.818   0.000  10.721   0.000   0.000   8.137

                      1                      2                      3
                     A1                     A1                     B2
 Frequencies --   1583.3564              3723.9227              3851.0131
 Red. masses --      1.0830                 1.0449                 1.0816
 Frc consts  --      1.5997                 8.5371                 9.4505
 IR Inten    --     52.3775                 1.3182                19.5618

 - Thermochemistry -
 -------------------
 Temperature   298.150 Kelvin.  Pressure   1.00000 Atm.
 Atom     1 has atomic number  8 and mass  15.99491

 Molecular mass:    18.01056 amu.
 Principal axes and moments of inertia in atomic units:
                           1         2         3
     Eigenvalues --     2.26960   4.21802   6.48761
           X           -0.00000   0.00000   1.00000
           Y            1.00000   0.00000   0.00000
           Z           -0.00000   1.00000   0.00000
 This molecule is an asymmetric top.
 Rotational symmetry number  2.
 Rotational temperatures (Kelvin)     38.16271    20.53427    13.35066
 Rotational constants (GHZ):         795.18177   427.86476   278.18259
 Zero-point vibrational energy      54778.8 (Joules/Mol)
                                   13.09244 (Kcal/Mol)
 Vibrational temperatures:   2278.10  5357.89  5540.75
          (Kelvin)

 Zero-point correction=                           0.020864 (Hartree/Particle)
 Thermal correction to Energy=                    0.023700
 Thermal correction to Enthalpy=                  0.024644
 Thermal correction to Gibbs Free Energy=         0.003195
 Sum of electronic and zero-point Energies=            -76.313099
 Sum of electronic and thermal Energies=               -76.310263
 Sum of electronic and thermal Enthalpies=             -76.309319
 Sum of electronic and thermal Free Energies=          -76.330768

                     E (Thermal)             CV                S
                      KCal/Mol        Cal/Mol-Kelvin    Cal/Mol-Kelvin
 Total                   14.872              6.017             45.144
 Electronic               0.000              0.000              0.000
 Translational            0.889              2.981             34.608
 Rotational               0.889              2.981             10.528
 Vibrational             13.095              0.056              0.008

 Normal termination of Gaussian 16 at Mon Jul 22 11:13:03 2019.
