 Gaussian 16, Revision A.03,
 Gaussian 16:  EM64M-G16RevA.03 25-Dec-2016

 -----------------------------------------------
 # opt ub3lyp/6-31g(d,p) guess=(core,mix,always)
 -----------------------------------------------

 -------------------
 Title Card Required
 -------------------
 Symbolic Z-matrix:
 Charge =  0 Multiplicity = 1

 SCF Done:  E(UB3LYP) =  -39.1420157020     A.U. after   15 cycles
 SCF Done:  E(UB3LYP) =  -39.1434862021     A.U. after   16 cycles
 SCF Done:  E(UB3LYP) =  -39.1434886808     A.U. after   14 cycles
 SCF Done:  E(UB3LYP) =  -39.1434893071     A.U. after   14 cycles
 Optimization completed.
    -- Stationary point found.

                         Standard orientation:
 ---------------------------------------------------------------------
 Center     Atomic      Atomic             Coordinates (Angstroms)
 Number     Number       Type             X           Y           Z
 ---------------------------------------------------------------------
      1          6           0       -0.000000   -0.000000    0.151313
      2          1           0       -0.000000    0.917538   -0.453938
      3          1           0       -0.000000   -0.917538   -0.453938
 ---------------------------------------------------------------------

 Unable to determine electronic state:  partially filled degenerate orbitals.
 Alpha  occ. eigenvalues --  -10.22873  -0.65019  -0.41660  -0.25468
 Alpha virt. eigenvalues --   -0.08833   0.12394   0.17558   0.53727   0.54698
 Alpha virt. eigenvalues --    0.58898   0.68991   0.86395   0.90514   1.44780
 Alpha virt. eigenvalues --    1.50859   1.58926   1.94987   1.98087   2.23719

  Beta  occ. eigenvalues --  -10.22873  -0.65019  -0.41660  -0.25468
  Beta virt. eigenvalues --   -0.08833   0.12394   0.17558   0.53727   0.54698
  Beta virt. eigenvalues --    0.58898   0.68991   0.86395   0.90514   1.44780
  Beta virt. eigenvalues --    1.50859   1.58926   1.94987   1.98087   2.23719

 Mulliken charges and spin densities:
               1          2
     1  C   -0.234373  -0.000000
     2  H    0.117186   0.000000
     3  H    0.117186  -0.000000
 Sum of Mulliken charges =  -0.00000  -0.00000

 Dipole moment (field-independent basis, Debye):
    X=              0.0000    Y=             -0.0000    Z=             -1.2708  Tot=              1.2708
 Quadrupole moment (field-independent basis, Debye-Ang):
   XX=             -6.9126   YY=             -6.4689   ZZ=             -8.1734
   XY=              0.0000   XZ=             -0.0000   YZ=              0.0000

 Normal termination of Gaussian 16 at Wed May  8 11:05:55 2019.
