 Gaussian 16, Revision A.03,
 Gaussian 16:  EM64M-G16RevA.03 25-Dec-2016

 -----------------------------------------------
 # opt ub3lyp/6-31g(d,p) guess=(core,mix,always)
 -----------------------------------------------

 -------------------
 Title Card Required
 -------------------
 Symbolic Z-matrix:
 Charge =  0 Multiplicity = 1

 SCF Done:  E(UB3LYP) =  -115.721364229     A.U. after   16 cycles
 SCF Done:  E(UB3LYP) =  -115.723826745     A.U. after   17 cycles
 SCF Done:  E(UB3LYP) =  -115.723950848     A.U. after   15 cycles
 SCF Done:  E(UB3LYP) =  -115.723963570     A.U. after   14 cycles
 SCF Done:  E(UB3LYP) =  -115.723964365     A.U. after   14 cycles
 Optimization completed.
    -- Stationary point found.

                         Standard orientation:
 ---------------------------------------------------------------------
 Center     Atomic      Atomic             Coordinates (Angstroms)
 Number     Number       Type             X           Y           Z
 ---------------------------------------------------------------------
      1          6           0        0.661654   -0.019435    0.000002
      2          1           0        1.082219    0.989431   -0.000660
      3          1           0        1.038231   -0.543463   -0.891512
      4          1           0        1.038334   -0.542349    0.892132
      5          8           0       -0.749378    0.122043    0.000003
      6          1           0       -1.133682   -0.763355    0.000009
 ---------------------------------------------------------------------

 The electronic state is 1-A.
 Alpha  occ. eigenvalues --  -19.14032 -10.22504  -1.01058  -0.67799  -0.50124
 Alpha  occ. eigenvalues --   -0.43327  -0.41891  -0.32942  -0.26493
 Alpha virt. eigenvalues --    0.07706   0.13104   0.16702   0.17527   0.20619
 Alpha virt. eigenvalues --    0.53165   0.55958   0.57161   0.76383   0.83187
 Alpha virt. eigenvalues --    0.84336   0.88115   0.94310   0.96510   1.00998

  Beta  occ. eigenvalues --  -19.14032 -10.22504  -1.01058  -0.67799  -0.50124
  Beta  occ. eigenvalues --   -0.43327  -0.41891  -0.32942  -0.26493
  Beta virt. eigenvalues --    0.07706   0.13104   0.16702   0.17527   0.20619
  Beta virt. eigenvalues --    0.53165   0.55958   0.57161   0.76383   0.83187
  Beta virt. eigenvalues --    0.84336   0.88115   0.94310   0.96510   1.00998

 Mulliken charges and spin densities:
               1          2
     1  C   -0.073946   0.000000
     2  H    0.120805  -0.000000
     3  H    0.089460   0.000000
     4  H    0.089465  -0.000000
     5  O   -0.531843   0.000000
     6  H    0.306058  -0.000000
 Sum of Mulliken charges =  -0.00000   0.00000

 Dipole moment (field-independent basis, Debye):
    X=              0.7342    Y=             -1.4927    Z=             -0.0001  Tot=              1.6635
 Quadrupole moment (field-independent basis, Debye-Ang):
   XX=            -12.5584   YY=            -12.0044   ZZ=            -13.5513
   XY=              2.1917   XZ=             -0.0002   YZ=             -0.0001

 Normal termination of Gaussian 16 at Wed May  8 11:06:04 2019.
