 Gaussian 16, Revision A.03,
 Gaussian 16:  EM64M-G16RevA.03 25-Dec-2016

 -----------------------------------------------
 # opt ub3lyp/6-31g(d,p) guess=(core,mix,always)
 -----------------------------------------------

 -------------------
 Title Card Required
 -------------------
 Symbolic Z-matrix:
 Charge =  0 Multiplicity = 1

 SCF Done:  E(UB3LYP) =  -76.4189299887     A.U. after   12 cycles
 SCF Done:  E(UB3LYP) =  -76.4197175521     A.U. after   13 cycles
 SCF Done:  E(UB3LYP) =  -76.4197373997     A.U. after   12 cycles
 Optimization completed.
    -- Stationary point found.

                         Standard orientation:
 ---------------------------------------------------------------------
 Center     Atomic      Atomic             Coordinates (Angstroms)
 Number     Number       Type             X           Y           Z
 ---------------------------------------------------------------------
      1          8           0        0.000000    0.000000    0.119187
      2          1           0       -0.000000    0.759278   -0.476747
      3          1           0       -0.000000   -0.759278   -0.476747
 ---------------------------------------------------------------------

 The electronic state is 1-A1.
 Alpha  occ. eigenvalues --  -19.13799  -0.99736  -0.51503  -0.37102  -0.29197
 Alpha virt. eigenvalues --    0.06538   0.15127   0.75691   0.80557   0.89135
 Alpha virt. eigenvalues --    0.89354   1.01558   1.17538   1.52951   1.53770
 Alpha virt. eigenvalues --    1.64365   2.23883   2.26829   2.45030   2.64115

  Beta  occ. eigenvalues --  -19.13799  -0.99736  -0.51503  -0.37102  -0.29197
  Beta virt. eigenvalues --    0.06538   0.15127   0.75691   0.80557   0.89135
  Beta virt. eigenvalues --    0.89354   1.01558   1.17538   1.52951   1.53770
  Beta virt. eigenvalues --    1.64365   2.23883   2.26829   2.45030   2.64115

 Mulliken charges and spin densities:
               1          2
     1  O   -0.609846  -0.000000
     2  H    0.304923   0.000000
     3  H    0.304923   0.000000
 Sum of Mulliken charges =   0.00000   0.00000

 Dipole moment (field-independent basis, Debye):
    X=             -0.0000    Y=              0.0000    Z=             -2.0428  Tot=              2.0428
 Quadrupole moment (field-independent basis, Debye-Ang):
   XX=             -7.1376   YY=             -4.2969   ZZ=             -5.9758
   XY=              0.0000   XZ=              0.0000   YZ=             -0.0000

 Normal termination of Gaussian 16 at Wed May  8 11:06:25 2019.
